
     Program PWSCF v.6.1 starts on  3Mar2022 at 17:44: 0 

     This program is part of the open-source Quantum ESPRESSO suite
     for quantum simulation of materials; please cite
         "P. Giannozzi et al., J. Phys.:Condens. Matter 21 395502 (2009);
          URL http://www.quantum-espresso.org", 
     in publications or presentations arising from this work. More details at
     http://www.quantum-espresso.org/quote

     Parallel version (MPI & OpenMP), running on      40 processor cores
     Number of MPI processes:                40
     Threads/MPI process:                     1
     R & G space division:  proc/nbgrp/npool/nimage =      40
     Reading input from pw.in
Warning: card &IONS ignored
Warning: card / ignored
Warning: card &CELL ignored
Warning: card / ignored

     Current dimensions of program PWSCF are:
     Max number of different atomic species (ntypx) = 10
     Max number of k-points (npk) =  40000
     Max angular momentum in pseudopotentials (lmaxx) =  3

     IMPORTANT: XC functional enforced from input :
     Exchange-correlation      = PBE ( 1  4  3  4 0 0)
     Any further DFT definition will be discarded
     Please, verify this is what you really want


     gamma-point specific algorithms are used

     Subspace diagonalization in iterative solution of the eigenvalue problem:
     one sub-group per band group will be used
     scalapack distributed-memory algorithm (size of sub-group:  4*  4 procs)

 
     Parallelization info
     --------------------
     sticks:   dense  smooth     PW     G-vecs:    dense   smooth      PW
     Min          69      69     16                 2493     2493     302
     Max          72      72     18                 2504     2504     314
     Sum        2839    2839    703                99965    99965   12387
 


     bravais-lattice index     =            0
     lattice parameter (alat)  =      11.3560  a.u.
     unit-cell volume          =    1035.5216 (a.u.)^3
     number of atoms/cell      =           15
     number of atomic types    =            2
     number of electrons       =       122.00
     number of Kohn-Sham states=           80
     kinetic-energy cutoff     =      80.0000  Ry
     charge density cutoff     =     320.0000  Ry
     convergence threshold     =      1.0E-06
     mixing beta               =       0.7000
     number of iterations used =            8  plain     mixing
     Exchange-correlation      = PBE ( 1  4  3  4 0 0)

     celldm(1)=  11.355983  celldm(2)=   0.000000  celldm(3)=   0.000000
     celldm(4)=   0.000000  celldm(5)=   0.000000  celldm(6)=   0.000000

     crystal axes: (cart. coord. in units of alat)
               a(1) = (   0.000000   0.707107   0.707107 )  
               a(2) = (   0.707107   0.000000   0.707107 )  
               a(3) = (   0.707107   0.707107   0.000000 )  

     reciprocal axes: (cart. coord. in units 2 pi/alat)
               b(1) = ( -0.707107  0.707107  0.707107 )  
               b(2) = (  0.707107 -0.707107  0.707107 )  
               b(3) = (  0.707107  0.707107 -0.707107 )  


     PseudoPot. # 1 for Mg read from file:
     ./Mg_ONCV_PBE-1.2.upf
     MD5 check sum: 330956729b1f868fdecd9f5113f6a961
     Pseudo is Norm-conserving, Zval = 10.0
     Generated using ONCVPSP code by D. R. Hamann
     Using radial grid of  602 points,  4 beta functions with: 
                l(1) =   0
                l(2) =   0
                l(3) =   1
                l(4) =   1

     PseudoPot. # 2 for O  read from file:
     ./O_ONCV_PBE-1.2.upf
     MD5 check sum: e36c48deb68f4e355fffe4602be2c42c
     Pseudo is Norm-conserving, Zval =  6.0
     Generated using ONCVPSP code by D. R. Hamann
     Using radial grid of  602 points,  4 beta functions with: 
                l(1) =   0
                l(2) =   0
                l(3) =   1
                l(4) =   1

     atomic species   valence    mass     pseudopotential
        Mg            10.00    24.30500     Mg( 1.00)
        O              6.00    15.99940     O ( 1.00)

     48 Sym. Ops., with inversion, found (24 have fractional translation)



   Cartesian axes

     site n.     atom                  positions (alat units)
         1           Mg  tau(   1) = (   0.0000000   0.0000000   0.0000000  )
         2           Mg  tau(   2) = (   0.3535534   0.3535534  -0.0029747  )
         3           Mg  tau(   3) = (   0.3535534  -0.0029747   0.3535534  )
         4           Mg  tau(   4) = (   0.7100815   0.3535534   0.3535534  )
         5           Mg  tau(   5) = (  -0.0029747   0.3535534   0.3535534  )
         6           Mg  tau(   6) = (   0.3535534   0.7100815   0.3535534  )
         7           Mg  tau(   7) = (   0.3535534   0.3535534   0.7100815  )
         8           Mg  tau(   8) = (   0.7071068   0.7071068   0.7071068  )
         9           O   tau(   9) = (   0.7071068   0.7071068   0.3535534  )
        10           O   tau(  10) = (   0.7071068   0.3535534   0.7071068  )
        11           O   tau(  11) = (   1.0606602   0.7071068   0.7071068  )
        12           O   tau(  12) = (   0.3535534   0.7071068   0.7071068  )
        13           O   tau(  13) = (   0.7071068   1.0606602   0.7071068  )
        14           O   tau(  14) = (   0.7071068   0.7071068   1.0606602  )
        15           O   tau(  15) = (   1.0606602   1.0606602   1.0606602  )

     number of k points=     1
                       cart. coord. in units 2pi/alat
        k(    1) = (   0.0000000   0.0000000   0.0000000), wk =   2.0000000

     Dense  grid:    49983 G-vectors     FFT dimensions: (  72,  72,  72)

     Estimated max dynamical RAM per process >       2.64MB

     Estimated total allocated dynamical RAM >     105.58MB

     Initial potential from superposition of free atoms

     starting charge  121.47010, renormalised to  122.00000
     Starting wfc are random

     total cpu time spent up to now is        0.1 secs

     per-process dynamical memory:    15.5 Mb

     Self-consistent Calculation

     iteration #  1     ecut=    80.00 Ry     beta=0.70
     Davidson diagonalization with overlap
     ethr =  1.00E-02,  avg # of iterations =  8.0

     total cpu time spent up to now is        0.4 secs

     total energy              =   -1092.96801158 Ry
     Harris-Foulkes estimate   =   -1095.32613048 Ry
     estimated scf accuracy    <       3.15406242 Ry

     iteration #  2     ecut=    80.00 Ry     beta=0.70
     Davidson diagonalization with overlap
     ethr =  2.59E-03,  avg # of iterations =  2.0

     total cpu time spent up to now is        0.4 secs

     total energy              =   -1093.77540825 Ry
     Harris-Foulkes estimate   =   -1095.14569806 Ry
     estimated scf accuracy    <       2.80512948 Ry

     iteration #  3     ecut=    80.00 Ry     beta=0.70
     Davidson diagonalization with overlap
     ethr =  2.30E-03,  avg # of iterations =  2.0

     total cpu time spent up to now is        0.5 secs

     total energy              =   -1094.33585165 Ry
     Harris-Foulkes estimate   =   -1094.33920268 Ry
     estimated scf accuracy    <       0.01552913 Ry

     iteration #  4     ecut=    80.00 Ry     beta=0.70
     Davidson diagonalization with overlap
     ethr =  1.27E-05,  avg # of iterations =  5.0

     total cpu time spent up to now is        0.6 secs

     total energy              =   -1094.33801377 Ry
     Harris-Foulkes estimate   =   -1094.34123105 Ry
     estimated scf accuracy    <       0.00658948 Ry

     iteration #  5     ecut=    80.00 Ry     beta=0.70
     Davidson diagonalization with overlap
     ethr =  5.40E-06,  avg # of iterations =  2.0

     total cpu time spent up to now is        0.6 secs

     total energy              =   -1094.33958353 Ry
     Harris-Foulkes estimate   =   -1094.33968519 Ry
     estimated scf accuracy    <       0.00026733 Ry

     iteration #  6     ecut=    80.00 Ry     beta=0.70
     Davidson diagonalization with overlap
     ethr =  2.19E-07,  avg # of iterations =  2.0

     total cpu time spent up to now is        0.7 secs

     total energy              =   -1094.33964174 Ry
     Harris-Foulkes estimate   =   -1094.33963932 Ry
     estimated scf accuracy    <       0.00000331 Ry

     iteration #  7     ecut=    80.00 Ry     beta=0.70
     Davidson diagonalization with overlap
     ethr =  2.71E-09,  avg # of iterations =  2.0

     total cpu time spent up to now is        0.8 secs

     End of self-consistent calculation

          k = 0.0000 0.0000 0.0000 (  6194 PWs)   bands (ev):

   -64.7581 -64.7578 -64.6001 -64.5956 -64.5956 -64.5956 -64.5936 -64.5936
   -31.5365 -31.5365 -31.5365 -31.5314 -31.5314 -31.5314 -31.4458 -31.4151
   -31.4151 -31.4151 -31.3926 -31.3926 -31.3926 -31.3837 -31.3837 -31.3724
   -31.3724 -31.3724 -31.3637 -31.3637 -31.3637 -31.3548 -31.3548 -31.3547
    -8.7432  -7.5814  -7.5813  -7.5809  -7.5601  -7.3544  -7.3541   3.6473
     3.7890   3.7890   3.7891   4.6281   4.6282   4.6282   6.9039   6.9041
     6.9041   7.1071   7.1071   7.1072   7.6134   7.6135   7.6136   7.6292
     7.6294   8.0647   8.0647   8.0648   8.7743  13.7410  15.8121  15.8121
    15.8122  16.6667  16.6668  16.6668  17.2152  17.2152  17.2152  17.2541
    17.8252  17.8252  20.4840  20.7490  20.7490  20.7490  23.7394  23.7394

     highest occupied, lowest unoccupied level (ev):     8.7743   13.7410

!    total energy              =   -1094.33964248 Ry
     Harris-Foulkes estimate   =   -1094.33964230 Ry
     estimated scf accuracy    <       0.00000015 Ry

     The total energy is the sum of the following terms:

     one-electron contribution =    -494.67576399 Ry
     hartree contribution      =     266.02526938 Ry
     xc contribution           =    -162.53515702 Ry
     ewald contribution        =    -703.15399084 Ry

     convergence has been achieved in   7 iterations

     Writing output data file pwscf.save
 
     init_run     :      0.06s CPU      0.07s WALL (       1 calls)
     electrons    :      0.61s CPU      0.66s WALL (       1 calls)

     Called by init_run:
     wfcinit      :      0.02s CPU      0.02s WALL (       1 calls)
     potinit      :      0.02s CPU      0.02s WALL (       1 calls)

     Called by electrons:
     c_bands      :      0.53s CPU      0.54s WALL (       7 calls)
     sum_band     :      0.03s CPU      0.04s WALL (       7 calls)
     v_of_rho     :      0.04s CPU      0.04s WALL (       8 calls)
     mix_rho      :      0.00s CPU      0.00s WALL (       7 calls)

     Called by c_bands:
     init_us_2    :      0.00s CPU      0.00s WALL (      15 calls)
     regterg      :      0.52s CPU      0.54s WALL (       7 calls)

     Called by sum_band:

     Called by *egterg:
     h_psi        :      0.21s CPU      0.21s WALL (      31 calls)
     g_psi        :      0.00s CPU      0.00s WALL (      23 calls)
     rdiaghg      :      0.26s CPU      0.28s WALL (      30 calls)

     Called by h_psi:
     h_psi:pot    :      0.21s CPU      0.21s WALL (      31 calls)
     h_psi:calbec :      0.01s CPU      0.01s WALL (      31 calls)
     vloc_psi     :      0.20s CPU      0.20s WALL (      31 calls)
     add_vuspsi   :      0.00s CPU      0.00s WALL (      31 calls)

     General routines
     calbec       :      0.01s CPU      0.01s WALL (      31 calls)
     fft          :      0.03s CPU      0.03s WALL (      87 calls)
     fftw         :      0.21s CPU      0.21s WALL (    2042 calls)
 
     Parallel routines
     fft_scatter  :      0.15s CPU      0.15s WALL (    2129 calls)
 
     PWSCF        :     0.83s CPU         1.16s WALL

 
   This run was terminated on:  17:44: 1   3Mar2022            

=------------------------------------------------------------------------------=
   JOB DONE.
=------------------------------------------------------------------------------=
